 vasp.6.1.0 28Jan20 (build Jan 13 2021 21:44:47) complex                        
  
 executed on             LinuxIFC date 2021.03.08  12:45:53
 running on   24 total cores
 distrk:  each k-point on    6 cores,    4 groups
 distr:  one band on NCORE=   1 cores,    6 groups


--------------------------------------------------------------------------------------------------------


 INCAR:
 POTCAR:    PAW_PBE Cd 06Sep2000                  
 POTCAR:    PAW_PBE Cu 22Jun2005                  
 POTCAR:    PAW_PBE Ge 05Jan2001                  
 POTCAR:    PAW_PBE Se 06Sep2000                  
 POTCAR:    PAW_PBE S 06Sep2000                   
 -----------------------------------------------------------------------------
|                                                                             |
|           W    W    AA    RRRRR   N    N  II  N    N   GGGG   !!!           |
|           W    W   A  A   R    R  NN   N  II  NN   N  G    G  !!!           |
|           W    W  A    A  R    R  N N  N  II  N N  N  G       !!!           |
|           W WW W  AAAAAA  RRRRR   N  N N  II  N  N N  G  GGG   !            |
|           WW  WW  A    A  R   R   N   NN  II  N   NN  G    G                |
|           W    W  A    A  R    R  N    N  II  N    N   GGGG   !!!           |
|                                                                             |
|     For optimal performance we recommend to set                             |
|       NCORE = 4 - approx SQRT(number of cores).                             |
|     NCORE specifies how many cores store one orbital (NPAR=cpu/NCORE).      |
|     This setting can greatly improve the performance of VASP for DFT.       |
|     The default, NCORE=1 might be grossly inefficient on modern             |
|     multi-core architectures or massively parallel machines. Do your        |
|     own testing!!!!                                                         |
|     Unfortunately you need to use the default for GW and RPA                |
|     calculations (for HF NCORE is supported but not extensively tested      |
|     yet).                                                                   |
|                                                                             |
 -----------------------------------------------------------------------------

 POTCAR:    PAW_PBE Cd 06Sep2000                  
   VRHFIN =Cd : s2 d10                                                                              
   LEXCH  = PE                                                                                      
   EATOM  =  1293.1815 eV,   95.0462 Ry                                                             
                                                                                                    
   TITEL  = PAW_PBE Cd 06Sep2000                                                                    
   LULTRA =        F    use ultrasoft PP ?                                                          
   IUNSCR =        1    unscreen: 0-lin 1-nonlin 2-no                                               
   RPACOR =    2.000    partial core radius                                                         
   POMASS =  112.411; ZVAL   =   12.000    mass and valenz                                          
   RCORE  =    2.300    outmost cutoff radius                                                       
   RWIGS  =    2.980; RWIGS  =    1.577    wigner-seitz radius (au A)                               
   ENMAX  =  274.336; ENMIN  =  205.752 eV                                                          
   RCLOC  =    2.054    cutoff for local pot                                                        
   LCOR   =        T    correct aug charges                                                         
   LPAW   =        T    paw PP                                                                      
   EAUG   =  456.106                                                                                
   DEXC   =    0.000                                                                                
   RMAX   =    2.358    core radius for proj-oper                                                   
   RAUG   =    1.300    factor for augmentation sphere                                              
   RDEP   =    2.450    radius for radial grids                                                     
   RDEPT  =    1.955    core radius for aug-charge                                                  
                                                                                                    
   Atomic configuration                                                                             
   12 entries                                                                                       
     n  l   j            E        occ.                                                              
     1  0  0.50    -26519.7817   2.0000                                                             
     2  0  0.50     -3936.9612   2.0000                                                             
     2  1  1.50     -3532.2230   6.0000                                                             
     3  0  0.50      -733.7908   2.0000                                                             
     3  1  1.50      -601.0792   6.0000                                                             
     3  2  2.50      -393.5307  10.0000                                                             
     4  0  0.50      -105.8977   2.0000                                                             
     4  1  1.50       -66.9488   6.0000                                                             
     4  2  2.50       -11.7331  10.0000                                                             
     5  0  0.50        -5.6592   2.0000                                                             
     5  1  0.50        -1.3606   0.0000                                                             
     4  3  2.50        -1.3606   0.0000                                                             
   Description                                                                                      
     l       E           TYP  RCUT    TYP  RCUT                                                     
     2    -11.7331479     23  2.300                                                                 
     2    -13.0937305     23  2.300                                                                 
     0     -5.6591502     23  2.300                                                                 
     0     -1.5561433     23  2.300                                                                 
     1     -2.7211652     23  2.300                                                                 
     1      8.3548275     23  2.300                                                                 
  local pseudopotential read in
  partial core-charges read in
  partial kinetic energy density read in
  atomic valenz-charges read in
  non local Contribution for L=           2  read in
    real space projection operators read in
  non local Contribution for L=           2  read in
    real space projection operators read in
  non local Contribution for L=           0  read in
    real space projection operators read in
  non local Contribution for L=           0  read in
    real space projection operators read in
  non local Contribution for L=           1  read in
    real space projection operators read in
  non local Contribution for L=           1  read in
    real space projection operators read in
    PAW grid and wavefunctions read in
 
   number of l-projection  operators is LMAX  =           6
   number of lm-projection operators is LMMAX =          18
 
 POTCAR:    PAW_PBE Cu 22Jun2005                  
   VRHFIN =Cu: d10 p1                                                                               
   LEXCH  = PE                                                                                      
   EATOM  =  1390.9808 eV,  102.2342 Ry                                                             
                                                                                                    
   TITEL  = PAW_PBE Cu 22Jun2005                                                                    
   LULTRA =        F    use ultrasoft PP ?                                                          
   IUNSCR =        1    unscreen: 0-lin 1-nonlin 2-no                                               
   RPACOR =    2.000    partial core radius                                                         
   POMASS =   63.546; ZVAL   =   11.000    mass and valenz                                          
   RCORE  =    2.300    outmost cutoff radius                                                       
   RWIGS  =    2.200; RWIGS  =    1.164    wigner-seitz radius (au A)                               
   ENMAX  =  295.446; ENMIN  =  221.585 eV                                                          
   ICORE  =        3    local potential                                                             
   LCOR   =        T    correct aug charges                                                         
   LPAW   =        T    paw PP                                                                      
   EAUG   =  586.980                                                                                
   DEXC   =    0.000                                                                                
   RMAX   =    2.344    core radius for proj-oper                                                   
   RAUG   =    1.300    factor for augmentation sphere                                              
   RDEP   =    2.302    radius for radial grids                                                     
   RDEPT  =    1.771    core radius for aug-charge                                                  
                                                                                                    
   Atomic configuration                                                                             
    9 entries                                                                                       
     n  l   j            E        occ.                                                              
     1  0  0.50     -8850.2468   2.0000                                                             
     2  0  0.50     -1062.3498   2.0000                                                             
     2  1  1.50      -916.8226   6.0000                                                             
     3  0  0.50      -114.6929   2.0000                                                             
     3  1  1.50       -72.1325   6.0000                                                             
     3  2  2.50        -5.0394  10.0000                                                             
     4  0  0.50        -4.6097   1.0000                                                             
     4  1  0.50        -4.0817   0.0000                                                             
     4  3  2.50        -1.3606   0.0000                                                             
   Description                                                                                      
     l       E           TYP  RCUT    TYP  RCUT                                                     
     2     -5.0393973     23  2.200                                                                 
     2     10.8846608     23  2.200                                                                 
     0     -4.6097109     23  2.200                                                                 
     0      8.2520465     23  2.200                                                                 
     1     -2.7211652     23  2.200                                                                 
     1     21.7055443     23  2.200                                                                 
     3      2.7211652     23  2.300                                                                 
  local pseudopotential read in
  partial core-charges read in
  partial kinetic energy density read in
  atomic valenz-charges read in
  non local Contribution for L=           2  read in
    real space projection operators read in
  non local Contribution for L=           2  read in
    real space projection operators read in
  non local Contribution for L=           0  read in
    real space projection operators read in
  non local Contribution for L=           0  read in
    real space projection operators read in
  non local Contribution for L=           1  read in
    real space projection operators read in
  non local Contribution for L=           1  read in
    real space projection operators read in
    PAW grid and wavefunctions read in
 
   number of l-projection  operators is LMAX  =           6
   number of lm-projection operators is LMMAX =          18
 
 POTCAR:    PAW_PBE Ge 05Jan2001                  
   VRHFIN =Ge: s2p2                                                                                 
   LEXCH  = PE                                                                                      
   EATOM  =   104.9960 eV,    7.7170 Ry                                                             
                                                                                                    
   TITEL  = PAW_PBE Ge 05Jan2001                                                                    
   LULTRA =        F    use ultrasoft PP ?                                                          
   IUNSCR =        1    unscreen: 0-lin 1-nonlin 2-no                                               
   RPACOR =    2.170    partial core radius                                                         
   POMASS =   72.610; ZVAL   =    4.000    mass and valenz                                          
   RCORE  =    2.300    outmost cutoff radius                                                       
   RWIGS  =    2.300; RWIGS  =    1.217    wigner-seitz radius (au A)                               
   ENMAX  =  173.807; ENMIN  =  130.355 eV                                                          
   ICORE  =        3    local potential                                                             
   LCOR   =        T    correct aug charges                                                         
   LPAW   =        T    paw PP                                                                      
   EAUG   =  385.843                                                                                
   DEXC   =    0.000                                                                                
   RMAX   =    2.342    core radius for proj-oper                                                   
   RAUG   =    1.300    factor for augmentation sphere                                              
   RDEP   =    2.318    radius for radial grids                                                     
   RDEPT  =    2.103    core radius for aug-charge                                                  
                                                                                                    
   Atomic configuration                                                                             
   10 entries                                                                                       
     n  l   j            E        occ.                                                              
     1  0  0.50    -10959.8463   2.0000                                                             
     2  0  0.50     -1371.6056   2.0000                                                             
     2  1  1.50     -1198.4791   6.0000                                                             
     3  0  0.50      -168.4733   2.0000                                                             
     3  1  1.50      -115.6019   6.0000                                                             
     3  2  2.50       -29.3106  10.0000                                                             
     4  0  0.50       -11.7309   2.0000                                                             
     4  1  0.50        -3.8952   2.0000                                                             
     4  2  1.50        -4.0817   0.0000                                                             
     4  3  2.50        -4.0817   0.0000                                                             
   Description                                                                                      
     l       E           TYP  RCUT    TYP  RCUT                                                     
     0    -11.7309493     23  2.300                                                                 
     0     -7.4578696     23  2.300                                                                 
     1     -3.8952261     23  2.300                                                                 
     1      6.1178114     23  2.300                                                                 
     2     -4.0817478     23  2.300                                                                 
     3     -1.3605826      7  2.300                                                                 
  local pseudopotential read in
  partial core-charges read in
  partial kinetic energy density read in
  atomic valenz-charges read in
  non local Contribution for L=           0  read in
    real space projection operators read in
  non local Contribution for L=           0  read in
    real space projection operators read in
  non local Contribution for L=           1  read in
    real space projection operators read in
  non local Contribution for L=           1  read in
    real space projection operators read in
  non local Contribution for L=           2  read in
    real space projection operators read in
    PAW grid and wavefunctions read in
 
   number of l-projection  operators is LMAX  =           5
   number of lm-projection operators is LMMAX =          13
 
 POTCAR:    PAW_PBE Se 06Sep2000                  
   VRHFIN =Se: s2p4                                                                                 
   LEXCH  = PE                                                                                      
   EATOM  =   257.1286 eV,   18.8984 Ry                                                             
                                                                                                    
   TITEL  = PAW_PBE Se 06Sep2000                                                                    
   LULTRA =        F    use ultrasoft PP ?                                                          
   IUNSCR =        1    unscreen: 0-lin 1-nonlin 2-no                                               
   RPACOR =    1.900    partial core radius                                                         
   POMASS =   78.960; ZVAL   =    6.000    mass and valenz                                          
   RCORE  =    2.100    outmost cutoff radius                                                       
   RWIGS  =    2.200; RWIGS  =    1.164    wigner-seitz radius (au A)                               
   ENMAX  =  211.555; ENMIN  =  158.666 eV                                                          
   ICORE  =        3    local potential                                                             
   LCOR   =        T    correct aug charges                                                         
   LPAW   =        T    paw PP                                                                      
   EAUG   =  446.842                                                                                
   DEXC   =    0.000                                                                                
   RMAX   =    2.147    core radius for proj-oper                                                   
   RAUG   =    1.300    factor for augmentation sphere                                              
   RDEP   =    2.177    radius for radial grids                                                     
   RDEPT  =    1.928    core radius for aug-charge                                                  
                                                                                                    
   Atomic configuration                                                                             
   10 entries                                                                                       
     n  l   j            E        occ.                                                              
     1  0  0.50    -12503.4787   2.0000                                                             
     2  0  0.50     -1606.9547   2.0000                                                             
     2  1  1.50     -1413.3140   6.0000                                                             
     3  0  0.50      -213.4885   2.0000                                                             
     3  1  1.50      -152.9538   6.0000                                                             
     3  2  2.50       -53.1221  10.0000                                                             
     4  0  0.50       -17.2865   2.0000                                                             
     4  1  0.50        -6.5110   4.0000                                                             
     4  2  2.50        -6.8029   0.0000                                                             
     4  3  2.50        -6.8029   0.0000                                                             
   Description                                                                                      
     l       E           TYP  RCUT    TYP  RCUT                                                     
     0    -17.2865377     23  2.100                                                                 
     0    -15.3094411     23  2.100                                                                 
     1     -6.5110275     23  2.100                                                                 
     1     -0.0695192     23  2.100                                                                 
     2     -6.8029130     23  2.100                                                                 
     3     -1.3605826      7  2.100                                                                 
  local pseudopotential read in
  partial core-charges read in
  partial kinetic energy density read in
  atomic valenz-charges read in
  non local Contribution for L=           0  read in
    real space projection operators read in
  non local Contribution for L=           0  read in
    real space projection operators read in
  non local Contribution for L=           1  read in
    real space projection operators read in
  non local Contribution for L=           1  read in
    real space projection operators read in
  non local Contribution for L=           2  read in
    real space projection operators read in
    PAW grid and wavefunctions read in
 
   number of l-projection  operators is LMAX  =           5
   number of lm-projection operators is LMMAX =          13
 
 POTCAR:    PAW_PBE S 06Sep2000                   
   VRHFIN =S : s2p4                                                                                 
   LEXCH  = PE                                                                                      
   EATOM  =   276.8230 eV,   20.3459 Ry                                                             
                                                                                                    
   TITEL  = PAW_PBE S 06Sep2000                                                                     
   LULTRA =        F    use ultrasoft PP ?                                                          
   IUNSCR =        1    unscreen: 0-lin 1-nonlin 2-no                                               
   RPACOR =    1.500    partial core radius                                                         
   POMASS =   32.066; ZVAL   =    6.000    mass and valenz                                          
   RCORE  =    1.900    outmost cutoff radius                                                       
   RWIGS  =    2.200; RWIGS  =    1.164    wigner-seitz radius (au A)                               
   ENMAX  =  258.689; ENMIN  =  194.016 eV                                                          
   ICORE  =        2    local potential                                                             
   LCOR   =        T    correct aug charges                                                         
   LPAW   =        T    paw PP                                                                      
   EAUG   =  335.092                                                                                
   DEXC   =    0.000                                                                                
   RMAX   =    1.942    core radius for proj-oper                                                   
   RAUG   =    1.300    factor for augmentation sphere                                              
   RDEP   =    1.954    radius for radial grids                                                     
   RDEPT  =    1.744    core radius for aug-charge                                                  
                                                                                                    
   Atomic configuration                                                                             
    6 entries                                                                                       
     n  l   j            E        occ.                                                              
     1  0  0.50     -2405.8406   2.0000                                                             
     2  0  0.50      -211.7007   2.0000                                                             
     2  1  1.50      -156.4958   6.0000                                                             
     3  0  0.50       -17.2562   2.0000                                                             
     3  1  0.50        -7.0085   4.0000                                                             
     3  2  1.50        -6.8029   0.0000                                                             
   Description                                                                                      
     l       E           TYP  RCUT    TYP  RCUT                                                     
     0    -17.2561641     23  1.900                                                                 
     0    -15.8743224     23  1.900                                                                 
     1     -7.0085400     23  1.900                                                                 
     1     -2.7779785     23  1.900                                                                 
     2     -6.8029130     23  1.900                                                                 
  local pseudopotential read in
  partial core-charges read in
  partial kinetic energy density read in
  atomic valenz-charges read in
  non local Contribution for L=           0  read in
    real space projection operators read in
  non local Contribution for L=           0  read in
    real space projection operators read in
  non local Contribution for L=           1  read in
    real space projection operators read in
  non local Contribution for L=           1  read in
    real space projection operators read in
    PAW grid and wavefunctions read in
 
   number of l-projection  operators is LMAX  =           4
   number of lm-projection operators is LMMAX =           8
 
  PAW_PBE Cd 06Sep2000                  :
 energy of atom  1       EATOM=-1293.1815
 kinetic energy error for atom=    0.0058 (will be added to EATOM!!)
  PAW_PBE Cu 22Jun2005                  :
 energy of atom  2       EATOM=-1390.9808
 kinetic energy error for atom=    0.0036 (will be added to EATOM!!)
  PAW_PBE Ge 05Jan2001                  :
 energy of atom  3       EATOM= -104.9960
 kinetic energy error for atom=    0.0002 (will be added to EATOM!!)
  PAW_PBE Se 06Sep2000                  :
 energy of atom  4       EATOM= -257.1286
 kinetic energy error for atom=    0.0007 (will be added to EATOM!!)
  PAW_PBE S 06Sep2000                   :
 energy of atom  5       EATOM= -276.8230
 kinetic energy error for atom=    0.0012 (will be added to EATOM!!)
 
 
 POSCAR: x 0.625
  positions in direct lattice
  velocities in cartesian coordinates
 exchange correlation table for  LEXCH =        8
   RHO(1)=    0.500       N(1)  =     2000
   RHO(2)=  100.500       N(2)  =     4000
 


--------------------------------------------------------------------------------------------------------


 ion  position               nearest neighbor table
   1  0.014  0.137  0.994-  12 2.57  15 2.60   9 2.67  10 2.69
   2  0.498  0.835  0.505-  16 2.57  13 2.58  14 2.60  11 2.68
   3  0.024  0.684  0.254-  12 2.30  13 2.31  11 2.46  10 2.49
   4  0.491  0.333  0.734-  16 2.30  15 2.31  14 2.31   9 2.49
   5  0.518  0.303  0.261-  16 2.26  10 2.43   9 2.43  11 2.45
   6  0.997  0.655  0.750-  12 2.33  14 2.33  15 2.34  13 2.36
   7  0.003  0.162  0.506-  15 2.30  16 2.31  13 2.31  10 2.42
   8  0.503  0.807  0.993-  14 2.29  12 2.31   9 2.42  11 2.42
   9  0.600  0.151  0.991-   8 2.42   5 2.43   4 2.49   1 2.67
  10  0.144  0.336  0.267-   7 2.42   5 2.43   3 2.49   1 2.69
  11  0.647  0.641  0.236-   8 2.42   5 2.45   3 2.46   2 2.68
  12  0.147  0.779  0.996-   3 2.30   8 2.31   6 2.33   1 2.57
  13  0.098  0.833  0.509-   3 2.31   7 2.31   6 2.36   2 2.58
  14  0.636  0.642  0.764-   8 2.29   4 2.31   6 2.33   2 2.60
  15  0.134  0.335  0.731-   7 2.30   4 2.31   6 2.34   1 2.60
  16  0.647  0.186  0.505-   5 2.26   4 2.30   7 2.31   2 2.57
 
  LATTYP: Found a triclinic cell.
 ALAT       =    10.2465211897
 B/A-ratio  =     0.6312327884
 C/A-ratio  =     1.0221342376
 COS(alpha) =     0.0004383931
 COS(beta)  =     0.5908802488
 COS(gamma) =     0.6322424567
  
  Lattice vectors:
  
 A1 = (  -6.4732044331,   0.0236932878,  -7.9428118124)
 A2 = (  -6.4679382039,  -0.0028055989,  -0.0041477181)
 A3 = (  -0.0024381254,   6.8052667557,  -7.9610786240)


Analysis of symmetry for initial positions (statically):
=====================================================================
 Subroutine PRICEL returns:
 Original cell was already a primitive cell.
 

 Routine SETGRP: Setting up the symmetry group for a 
 triclinic supercell.


 Subroutine GETGRP returns: Found  1 space group operations
 (whereof  1 operations were pure point group operations)
 out of a pool of  2 trial point group operations.


The static configuration has the point symmetry C_1 .


Analysis of symmetry for dynamics (positions and initial velocities):
=====================================================================
 Subroutine PRICEL returns:
 Original cell was already a primitive cell.
 

 Routine SETGRP: Setting up the symmetry group for a 
 triclinic supercell.


 Subroutine GETGRP returns: Found  1 space group operations
 (whereof  1 operations were pure point group operations)
 out of a pool of  2 trial point group operations.


The dynamic configuration has the point symmetry C_1 .


 Subroutine INISYM returns: Found  1 space group operations
 (whereof  1 operations are pure point group operations),
 and found     1 'primitive' translations


----------------------------------------------------------------------------------------

                                     Primitive cell                                     

  volume of cell :     348.0639

  direct lattice vectors                    reciprocal lattice vectors
     6.467938204  0.002805599  0.004147718     0.154608869 -0.000064843 -0.000102779
     0.002828104  6.778767869 -0.022414530    -0.000064306  0.147521089  0.000492461
     0.005266229 -0.026498887  7.938664094    -0.000080960  0.000416554  0.125967222

  length of vectors
     6.467940142  6.778805517  7.938710067     0.154608916  0.147521925  0.125967937

  position of ions in fractional coordinates (direct lattice)
     0.013614330  0.137102114  0.993685211
     0.497734019  0.834586191  0.505412953
     0.023868570  0.684239162  0.254475084
     0.490544826  0.333410935  0.733910613
     0.517926382  0.303071625  0.260997692
     0.996607590  0.654703133  0.750342465
     0.002906296  0.161857904  0.506425570
     0.502743769  0.806531835  0.993387326
     0.600480615  0.151056559  0.990647270
     0.143872361  0.336188533  0.267454982
     0.647197518  0.641243237  0.235765929
     0.146899651  0.779225548  0.995901316
     0.098374386  0.833240016  0.509496326
     0.636395463  0.642455138  0.764050573
     0.133929171  0.335317839  0.731393297
     0.646905052  0.185770231  0.505493394

  ion indices of the primitive-cell ions
   primitive index   ion index
                 1           1
                 2           2
                 3           3
                 4           4
                 5           5
                 6           6
                 7           7
                 8           8
                 9           9
                10          10
                11          11
                12          12
                13          13
                14          14
                15          15
                16          16

----------------------------------------------------------------------------------------

 
 
 KPOINTS: elect                                   

Automatic generation of k-mesh.
Space group operators:
 irot       det(A)        alpha          n_x          n_y          n_z        tau_x        tau_y        tau_z
    1     1.000000     0.000000     1.000000     0.000000     0.000000     0.000000     0.000000     0.000000
 TETIRR: Found    540 inequivalent tetrahedra from     1080
 
 Subroutine IBZKPT returns following result:
 ===========================================
 
 Found     92 irreducible k-points:
 
 Following reciprocal coordinates:
            Coordinates               Weight
  0.000000  0.000000  0.000000      1.000000
  0.166667  0.000000  0.000000      2.000000
  0.333333  0.000000 -0.000000      2.000000
  0.500000  0.000000  0.000000      1.000000
 -0.000000  0.166667 -0.000000      2.000000
  0.166667  0.166667 -0.000000      2.000000
  0.333333  0.166667  0.000000      2.000000
  0.500000  0.166667 -0.000000      2.000000
 -0.333333  0.166667 -0.000000      2.000000
 -0.166667  0.166667 -0.000000      2.000000
  0.000000  0.333333  0.000000      2.000000
  0.166667  0.333333 -0.000000      2.000000
  0.333333  0.333333 -0.000000      2.000000
  0.500000  0.333333  0.000000      2.000000
 -0.333333  0.333333  0.000000      2.000000
 -0.166667  0.333333 -0.000000      2.000000
  0.000000  0.500000 -0.000000      1.000000
  0.166667  0.500000  0.000000      2.000000
  0.333333  0.500000 -0.000000      2.000000
  0.500000  0.500000 -0.000000      1.000000
  0.000000 -0.000000  0.200000      2.000000
  0.166667  0.000000  0.200000      2.000000
  0.333333 -0.000000  0.200000      2.000000
  0.500000 -0.000000  0.200000      2.000000
 -0.333333  0.000000  0.200000      2.000000
 -0.166667 -0.000000  0.200000      2.000000
  0.000000  0.166667  0.200000      2.000000
  0.166667  0.166667  0.200000      2.000000
  0.333333  0.166667  0.200000      2.000000
  0.500000  0.166667  0.200000      2.000000
 -0.333333  0.166667  0.200000      2.000000
 -0.166667  0.166667  0.200000      2.000000
  0.000000  0.333333  0.200000      2.000000
  0.166667  0.333333  0.200000      2.000000
  0.333333  0.333333  0.200000      2.000000
  0.500000  0.333333  0.200000      2.000000
 -0.333333  0.333333  0.200000      2.000000
 -0.166667  0.333333  0.200000      2.000000
  0.000000  0.500000  0.200000      2.000000
  0.166667  0.500000  0.200000      2.000000
  0.333333  0.500000  0.200000      2.000000
  0.500000  0.500000  0.200000      2.000000
 -0.333333  0.500000  0.200000      2.000000
 -0.166667  0.500000  0.200000      2.000000
  0.000000 -0.333333  0.200000      2.000000
  0.166667 -0.333333  0.200000      2.000000
  0.333333 -0.333333  0.200000      2.000000
  0.500000 -0.333333  0.200000      2.000000
 -0.333333 -0.333333  0.200000      2.000000
 -0.166667 -0.333333  0.200000      2.000000
  0.000000 -0.166667  0.200000      2.000000
  0.166667 -0.166667  0.200000      2.000000
  0.333333 -0.166667  0.200000      2.000000
  0.500000 -0.166667  0.200000      2.000000
 -0.333333 -0.166667  0.200000      2.000000
 -0.166667 -0.166667  0.200000      2.000000
  0.000000 -0.000000  0.400000      2.000000
  0.166667  0.000000  0.400000      2.000000
  0.333333  0.000000  0.400000      2.000000
  0.500000  0.000000  0.400000      2.000000
 -0.333333  0.000000  0.400000      2.000000
 -0.166667  0.000000  0.400000      2.000000
  0.000000  0.166667  0.400000      2.000000
  0.166667  0.166667  0.400000      2.000000
  0.333333  0.166667  0.400000      2.000000
  0.500000  0.166667  0.400000      2.000000
 -0.333333  0.166667  0.400000      2.000000
 -0.166667  0.166667  0.400000      2.000000
  0.000000  0.333333  0.400000      2.000000
  0.166667  0.333333  0.400000      2.000000
  0.333333  0.333333  0.400000      2.000000
  0.500000  0.333333  0.400000      2.000000
 -0.333333  0.333333  0.400000      2.000000
 -0.166667  0.333333  0.400000      2.000000
  0.000000  0.500000  0.400000      2.000000
  0.166667  0.500000  0.400000      2.000000
  0.333333  0.500000  0.400000      2.000000
  0.500000  0.500000  0.400000      2.000000
 -0.333333  0.500000  0.400000      2.000000
 -0.166667  0.500000  0.400000      2.000000
  0.000000 -0.333333  0.400000      2.000000
  0.166667 -0.333333  0.400000      2.000000
  0.333333 -0.333333  0.400000      2.000000
  0.500000 -0.333333  0.400000      2.000000
 -0.333333 -0.333333  0.400000      2.000000
 -0.166667 -0.333333  0.400000      2.000000
  0.000000 -0.166667  0.400000      2.000000
  0.166667 -0.166667  0.400000      2.000000
  0.333333 -0.166667  0.400000      2.000000
  0.500000 -0.166667  0.400000      2.000000
 -0.333333 -0.166667  0.400000      2.000000
 -0.166667 -0.166667  0.400000      2.000000
 
 Following cartesian coordinates:
            Coordinates               Weight
  0.000000  0.000000  0.000000      1.000000
  0.025768 -0.000011 -0.000017      2.000000
  0.051536 -0.000022 -0.000034      2.000000
  0.077304 -0.000032 -0.000051      1.000000
 -0.000011  0.024587  0.000082      2.000000
  0.025757  0.024576  0.000065      2.000000
  0.051526  0.024565  0.000048      2.000000
  0.077294  0.024554  0.000031      2.000000
 -0.051547  0.024608  0.000116      2.000000
 -0.025779  0.024598  0.000099      2.000000
 -0.000021  0.049174  0.000164      2.000000
  0.025747  0.049163  0.000147      2.000000
  0.051515  0.049152  0.000130      2.000000
  0.077283  0.049141  0.000113      2.000000
 -0.051558  0.049195  0.000198      2.000000
 -0.025790  0.049185  0.000181      2.000000
 -0.000032  0.073761  0.000246      1.000000
  0.025736  0.073750  0.000229      2.000000
  0.051504  0.073739  0.000212      2.000000
  0.077272  0.073728  0.000195      1.000000
 -0.000016  0.000083  0.025193      2.000000
  0.025752  0.000073  0.025176      2.000000
  0.051520  0.000062  0.025159      2.000000
  0.077288  0.000051  0.025142      2.000000
 -0.051552  0.000105  0.025228      2.000000
 -0.025784  0.000094  0.025211      2.000000
 -0.000027  0.024670  0.025276      2.000000
  0.025741  0.024659  0.025258      2.000000
  0.051509  0.024649  0.025241      2.000000
  0.077278  0.024638  0.025224      2.000000
 -0.051563  0.024692  0.025310      2.000000
 -0.025795  0.024681  0.025293      2.000000
 -0.000038  0.049257  0.025358      2.000000
  0.025731  0.049246  0.025340      2.000000
  0.051499  0.049235  0.025323      2.000000
  0.077267  0.049225  0.025306      2.000000
 -0.051574  0.049279  0.025392      2.000000
 -0.025806  0.049268  0.025375      2.000000
 -0.000048  0.073844  0.025440      2.000000
  0.025720  0.073833  0.025423      2.000000
  0.051488  0.073822  0.025405      2.000000
  0.077256  0.073811  0.025388      2.000000
 -0.051585  0.073865  0.025474      2.000000
 -0.025816  0.073855  0.025457      2.000000
  0.000005 -0.049090  0.025029      2.000000
  0.025773 -0.049101  0.025012      2.000000
  0.051542 -0.049112  0.024995      2.000000
  0.077310 -0.049123  0.024978      2.000000
 -0.051531 -0.049069  0.025064      2.000000
 -0.025763 -0.049080  0.025046      2.000000
 -0.000005 -0.024504  0.025111      2.000000
  0.025763 -0.024514  0.025094      2.000000
  0.051531 -0.024525  0.025077      2.000000
  0.077299 -0.024536  0.025060      2.000000
 -0.051542 -0.024482  0.025146      2.000000
 -0.025774 -0.024493  0.025128      2.000000
 -0.000032  0.000167  0.050387      2.000000
  0.025736  0.000156  0.050370      2.000000
  0.051504  0.000145  0.050353      2.000000
  0.077272  0.000134  0.050335      2.000000
 -0.051569  0.000188  0.050421      2.000000
 -0.025801  0.000177  0.050404      2.000000
 -0.000043  0.024753  0.050469      2.000000
  0.025725  0.024743  0.050452      2.000000
  0.051493  0.024732  0.050435      2.000000
  0.077261  0.024721  0.050418      2.000000
 -0.051579  0.024775  0.050503      2.000000
 -0.025811  0.024764  0.050486      2.000000
 -0.000054  0.049340  0.050551      2.000000
  0.025714  0.049330  0.050534      2.000000
  0.051482  0.049319  0.050517      2.000000
  0.077251  0.049308  0.050500      2.000000
 -0.051590  0.049362  0.050585      2.000000
 -0.025822  0.049351  0.050568      2.000000
 -0.000065  0.073927  0.050633      2.000000
  0.025704  0.073916  0.050616      2.000000
  0.051472  0.073906  0.050599      2.000000
  0.077240  0.073895  0.050582      2.000000
 -0.051601  0.073949  0.050667      2.000000
 -0.025833  0.073938  0.050650      2.000000
 -0.000011 -0.049007  0.050223      2.000000
  0.025757 -0.049018  0.050206      2.000000
  0.051525 -0.049029  0.050188      2.000000
  0.077293 -0.049039  0.050171      2.000000
 -0.051547 -0.048985  0.050257      2.000000
 -0.025779 -0.048996  0.050240      2.000000
 -0.000022 -0.024420  0.050305      2.000000
  0.025746 -0.024431  0.050288      2.000000
  0.051515 -0.024442  0.050271      2.000000
  0.077283 -0.024453  0.050253      2.000000
 -0.051558 -0.024399  0.050339      2.000000
 -0.025790 -0.024409  0.050322      2.000000
 
 
 Subroutine IBZKPT_HF returns following result:
 ==============================================
 
 Found    180 k-points in 1st BZ
 the following    180 k-points will be used (e.g. in the exchange kernel)
 Following reciprocal coordinates:   # in IRBZ
  0.000000  0.000000  0.000000    0.00555556   1 t-inv F
  0.166667  0.000000  0.000000    0.00555556   2 t-inv F
  0.333333  0.000000 -0.000000    0.00555556   3 t-inv F
  0.500000  0.000000  0.000000    0.00555556   4 t-inv F
 -0.000000  0.166667 -0.000000    0.00555556   5 t-inv F
  0.166667  0.166667 -0.000000    0.00555556   6 t-inv F
  0.333333  0.166667  0.000000    0.00555556   7 t-inv F
  0.500000  0.166667 -0.000000    0.00555556   8 t-inv F
 -0.333333  0.166667 -0.000000    0.00555556   9 t-inv F
 -0.166667  0.166667 -0.000000    0.00555556  10 t-inv F
  0.000000  0.333333  0.000000    0.00555556  11 t-inv F
  0.166667  0.333333 -0.000000    0.00555556  12 t-inv F
  0.333333  0.333333 -0.000000    0.00555556  13 t-inv F
  0.500000  0.333333  0.000000    0.00555556  14 t-inv F
 -0.333333  0.333333  0.000000    0.00555556  15 t-inv F
 -0.166667  0.333333 -0.000000    0.00555556  16 t-inv F
  0.000000  0.500000 -0.000000    0.00555556  17 t-inv F
  0.166667  0.500000  0.000000    0.00555556  18 t-inv F
  0.333333  0.500000 -0.000000    0.00555556  19 t-inv F
  0.500000  0.500000 -0.000000    0.00555556  20 t-inv F
  0.000000 -0.000000  0.200000    0.00555556  21 t-inv F
  0.166667  0.000000  0.200000    0.00555556  22 t-inv F
  0.333333 -0.000000  0.200000    0.00555556  23 t-inv F
  0.500000 -0.000000  0.200000    0.00555556  24 t-inv F
 -0.333333  0.000000  0.200000    0.00555556  25 t-inv F
 -0.166667 -0.000000  0.200000    0.00555556  26 t-inv F
  0.000000  0.166667  0.200000    0.00555556  27 t-inv F
  0.166667  0.166667  0.200000    0.00555556  28 t-inv F
  0.333333  0.166667  0.200000    0.00555556  29 t-inv F
  0.500000  0.166667  0.200000    0.00555556  30 t-inv F
 -0.333333  0.166667  0.200000    0.00555556  31 t-inv F
 -0.166667  0.166667  0.200000    0.00555556  32 t-inv F
  0.000000  0.333333  0.200000    0.00555556  33 t-inv F
  0.166667  0.333333  0.200000    0.00555556  34 t-inv F
  0.333333  0.333333  0.200000    0.00555556  35 t-inv F
  0.500000  0.333333  0.200000    0.00555556  36 t-inv F
 -0.333333  0.333333  0.200000    0.00555556  37 t-inv F
 -0.166667  0.333333  0.200000    0.00555556  38 t-inv F
  0.000000  0.500000  0.200000    0.00555556  39 t-inv F
  0.166667  0.500000  0.200000    0.00555556  40 t-inv F
  0.333333  0.500000  0.200000    0.00555556  41 t-inv F
  0.500000  0.500000  0.200000    0.00555556  42 t-inv F
 -0.333333  0.500000  0.200000    0.00555556  43 t-inv F
 -0.166667  0.500000  0.200000    0.00555556  44 t-inv F
  0.000000 -0.333333  0.200000    0.00555556  45 t-inv F
  0.166667 -0.333333  0.200000    0.00555556  46 t-inv F
  0.333333 -0.333333  0.200000    0.00555556  47 t-inv F
  0.500000 -0.333333  0.200000    0.00555556  48 t-inv F
 -0.333333 -0.333333  0.200000    0.00555556  49 t-inv F
 -0.166667 -0.333333  0.200000    0.00555556  50 t-inv F
  0.000000 -0.166667  0.200000    0.00555556  51 t-inv F
  0.166667 -0.166667  0.200000    0.00555556  52 t-inv F
  0.333333 -0.166667  0.200000    0.00555556  53 t-inv F
  0.500000 -0.166667  0.200000    0.00555556  54 t-inv F
 -0.333333 -0.166667  0.200000    0.00555556  55 t-inv F
 -0.166667 -0.166667  0.200000    0.00555556  56 t-inv F
  0.000000 -0.000000  0.400000    0.00555556  57 t-inv F
  0.166667  0.000000  0.400000    0.00555556  58 t-inv F
  0.333333  0.000000  0.400000    0.00555556  59 t-inv F
  0.500000  0.000000  0.400000    0.00555556  60 t-inv F
 -0.333333  0.000000  0.400000    0.00555556  61 t-inv F
 -0.166667  0.000000  0.400000    0.00555556  62 t-inv F
  0.000000  0.166667  0.400000    0.00555556  63 t-inv F
  0.166667  0.166667  0.400000    0.00555556  64 t-inv F
  0.333333  0.166667  0.400000    0.00555556  65 t-inv F
  0.500000  0.166667  0.400000    0.00555556  66 t-inv F
 -0.333333  0.166667  0.400000    0.00555556  67 t-inv F
 -0.166667  0.166667  0.400000    0.00555556  68 t-inv F
  0.000000  0.333333  0.400000    0.00555556  69 t-inv F
  0.166667  0.333333  0.400000    0.00555556  70 t-inv F
  0.333333  0.333333  0.400000    0.00555556  71 t-inv F
  0.500000  0.333333  0.400000    0.00555556  72 t-inv F
 -0.333333  0.333333  0.400000    0.00555556  73 t-inv F
 -0.166667  0.333333  0.400000    0.00555556  74 t-inv F
  0.000000  0.500000  0.400000    0.00555556  75 t-inv F
  0.166667  0.500000  0.400000    0.00555556  76 t-inv F
  0.333333  0.500000  0.400000    0.00555556  77 t-inv F
  0.500000  0.500000  0.400000    0.00555556  78 t-inv F
 -0.333333  0.500000  0.400000    0.00555556  79 t-inv F
 -0.166667  0.500000  0.400000    0.00555556  80 t-inv F
  0.000000 -0.333333  0.400000    0.00555556  81 t-inv F
  0.166667 -0.333333  0.400000    0.00555556  82 t-inv F
  0.333333 -0.333333  0.400000    0.00555556  83 t-inv F
  0.500000 -0.333333  0.400000    0.00555556  84 t-inv F
 -0.333333 -0.333333  0.400000    0.00555556  85 t-inv F
 -0.166667 -0.333333  0.400000    0.00555556  86 t-inv F
  0.000000 -0.166667  0.400000    0.00555556  87 t-inv F
  0.166667 -0.166667  0.400000    0.00555556  88 t-inv F
  0.333333 -0.166667  0.400000    0.00555556  89 t-inv F
  0.500000 -0.166667  0.400000    0.00555556  90 t-inv F
 -0.333333 -0.166667  0.400000    0.00555556  91 t-inv F
 -0.166667 -0.166667  0.400000    0.00555556  92 t-inv F
 -0.166667 -0.000000 -0.000000    0.00555556   2 t-inv T
 -0.333333 -0.000000  0.000000    0.00555556   3 t-inv T
  0.000000 -0.166667  0.000000    0.00555556   5 t-inv T
 -0.166667 -0.166667  0.000000    0.00555556   6 t-inv T
 -0.333333 -0.166667 -0.000000    0.00555556   7 t-inv T
 -0.500000 -0.166667  0.000000    0.00555556   8 t-inv T
  0.333333 -0.166667  0.000000    0.00555556   9 t-inv T
  0.166667 -0.166667  0.000000    0.00555556  10 t-inv T
 -0.000000 -0.333333 -0.000000    0.00555556  11 t-inv T
 -0.166667 -0.333333  0.000000    0.00555556  12 t-inv T
 -0.333333 -0.333333  0.000000    0.00555556  13 t-inv T
 -0.500000 -0.333333 -0.000000    0.00555556  14 t-inv T
  0.333333 -0.333333 -0.000000    0.00555556  15 t-inv T
  0.166667 -0.333333  0.000000    0.00555556  16 t-inv T
 -0.166667 -0.500000 -0.000000    0.00555556  18 t-inv T
 -0.333333 -0.500000  0.000000    0.00555556  19 t-inv T
 -0.000000  0.000000 -0.200000    0.00555556  21 t-inv T
 -0.166667 -0.000000 -0.200000    0.00555556  22 t-inv T
 -0.333333  0.000000 -0.200000    0.00555556  23 t-inv T
 -0.500000  0.000000 -0.200000    0.00555556  24 t-inv T
  0.333333 -0.000000 -0.200000    0.00555556  25 t-inv T
  0.166667  0.000000 -0.200000    0.00555556  26 t-inv T
 -0.000000 -0.166667 -0.200000    0.00555556  27 t-inv T
 -0.166667 -0.166667 -0.200000    0.00555556  28 t-inv T
 -0.333333 -0.166667 -0.200000    0.00555556  29 t-inv T
 -0.500000 -0.166667 -0.200000    0.00555556  30 t-inv T
  0.333333 -0.166667 -0.200000    0.00555556  31 t-inv T
  0.166667 -0.166667 -0.200000    0.00555556  32 t-inv T
 -0.000000 -0.333333 -0.200000    0.00555556  33 t-inv T
 -0.166667 -0.333333 -0.200000    0.00555556  34 t-inv T
 -0.333333 -0.333333 -0.200000    0.00555556  35 t-inv T
 -0.500000 -0.333333 -0.200000    0.00555556  36 t-inv T
  0.333333 -0.333333 -0.200000    0.00555556  37 t-inv T
  0.166667 -0.333333 -0.200000    0.00555556  38 t-inv T
 -0.000000 -0.500000 -0.200000    0.00555556  39 t-inv T
 -0.166667 -0.500000 -0.200000    0.00555556  40 t-inv T
 -0.333333 -0.500000 -0.200000    0.00555556  41 t-inv T
 -0.500000 -0.500000 -0.200000    0.00555556  42 t-inv T
  0.333333 -0.500000 -0.200000    0.00555556  43 t-inv T
  0.166667 -0.500000 -0.200000    0.00555556  44 t-inv T
 -0.000000  0.333333 -0.200000    0.00555556  45 t-inv T
 -0.166667  0.333333 -0.200000    0.00555556  46 t-inv T
 -0.333333  0.333333 -0.200000    0.00555556  47 t-inv T
 -0.500000  0.333333 -0.200000    0.00555556  48 t-inv T
  0.333333  0.333333 -0.200000    0.00555556  49 t-inv T
  0.166667  0.333333 -0.200000    0.00555556  50 t-inv T
 -0.000000  0.166667 -0.200000    0.00555556  51 t-inv T
 -0.166667  0.166667 -0.200000    0.00555556  52 t-inv T
 -0.333333  0.166667 -0.200000    0.00555556  53 t-inv T
 -0.500000  0.166667 -0.200000    0.00555556  54 t-inv T
  0.333333  0.166667 -0.200000    0.00555556  55 t-inv T
  0.166667  0.166667 -0.200000    0.00555556  56 t-inv T
 -0.000000  0.000000 -0.400000    0.00555556  57 t-inv T
 -0.166667 -0.000000 -0.400000    0.00555556  58 t-inv T
 -0.333333 -0.000000 -0.400000    0.00555556  59 t-inv T
 -0.500000 -0.000000 -0.400000    0.00555556  60 t-inv T
  0.333333 -0.000000 -0.400000    0.00555556  61 t-inv T
  0.166667 -0.000000 -0.400000    0.00555556  62 t-inv T
 -0.000000 -0.166667 -0.400000    0.00555556  63 t-inv T
 -0.166667 -0.166667 -0.400000    0.00555556  64 t-inv T
 -0.333333 -0.166667 -0.400000    0.00555556  65 t-inv T
 -0.500000 -0.166667 -0.400000    0.00555556  66 t-inv T
  0.333333 -0.166667 -0.400000    0.00555556  67 t-inv T
  0.166667 -0.166667 -0.400000    0.00555556  68 t-inv T
 -0.000000 -0.333333 -0.400000    0.00555556  69 t-inv T
 -0.166667 -0.333333 -0.400000    0.00555556  70 t-inv T
 -0.333333 -0.333333 -0.400000    0.00555556  71 t-inv T
 -0.500000 -0.333333 -0.400000    0.00555556  72 t-inv T
  0.333333 -0.333333 -0.400000    0.00555556  73 t-inv T
  0.166667 -0.333333 -0.400000    0.00555556  74 t-inv T
 -0.000000 -0.500000 -0.400000    0.00555556  75 t-inv T
 -0.166667 -0.500000 -0.400000    0.00555556  76 t-inv T
 -0.333333 -0.500000 -0.400000    0.00555556  77 t-inv T
 -0.500000 -0.500000 -0.400000    0.00555556  78 t-inv T
  0.333333 -0.500000 -0.400000    0.00555556  79 t-inv T
  0.166667 -0.500000 -0.400000    0.00555556  80 t-inv T
 -0.000000  0.333333 -0.400000    0.00555556  81 t-inv T
 -0.166667  0.333333 -0.400000    0.00555556  82 t-inv T
 -0.333333  0.333333 -0.400000    0.00555556  83 t-inv T
 -0.500000  0.333333 -0.400000    0.00555556  84 t-inv T
  0.333333  0.333333 -0.400000    0.00555556  85 t-inv T
  0.166667  0.333333 -0.400000    0.00555556  86 t-inv T
 -0.000000  0.166667 -0.400000    0.00555556  87 t-inv T
 -0.166667  0.166667 -0.400000    0.00555556  88 t-inv T
 -0.333333  0.166667 -0.400000    0.00555556  89 t-inv T
 -0.500000  0.166667 -0.400000    0.00555556  90 t-inv T
  0.333333  0.166667 -0.400000    0.00555556  91 t-inv T
  0.166667  0.166667 -0.400000    0.00555556  92 t-inv T


--------------------------------------------------------------------------------------------------------




 Dimension of arrays:
   k-points           NKPTS =     92   k-points in BZ     NKDIM =    180   number of bands    NBANDS=    222
   number of dos      NEDOS =   3000   number of ions     NIONS =     16
   non local maximal  LDIM  =      6   non local SUM 2l+1 LMDIM =     18
   total plane-waves  NPLWV =  76800
   max r-space proj   IRMAX =      1   max aug-charges    IRDMAX=  12190
   dimension x,y,z NGX =    40 NGY =   40 NGZ =   48
   dimension x,y,z NGXF=    80 NGYF=   80 NGZF=   96
   support grid    NGXF=    80 NGYF=   80 NGZF=   96
   ions per type =               2   4   2   3   5
   NGX,Y,Z   is equivalent  to a cutoff of  10.28,  9.81, 10.05 a.u.
   NGXF,Y,Z  is equivalent  to a cutoff of  20.56, 19.62, 20.10 a.u.

 SYSTEM =  unknown system                          
 POSCAR =  x 0.625                                 

 Startparameter for this run:
   NWRITE =      2    write-flag & timer
   PREC   = normal    normal or accurate (medium, high low for compatibility)
   ISTART =      1    job   : 0-new  1-cont  2-samecut
   ICHARG =      1    charge: 1-file 2-atom 10-const
   ISPIN  =      1    spin polarized calculation?
   LNONCOLLINEAR =      F non collinear calculations
   LSORBIT =      F    spin-orbit coupling
   INIWAV =      1    electr: 0-lowe 1-rand  2-diag
   LASPH  =      F    aspherical Exc in radial PAW
   METAGGA=      F    non-selfconsistent MetaGGA calc.

 Electronic Relaxation 1
   ENCUT  =  550.0 eV  40.42 Ry    6.36 a.u.  12.37 12.96 15.18*2*pi/ulx,y,z
   ENINI  =  550.0     initial cutoff
   ENAUG  =  587.0 eV  augmentation charge cutoff
   NELM   =     60;   NELMIN=  2; NELMDL=  0     # of ELM steps 
   EDIFF  = 0.1E-03   stopping-criterion for ELM
   LREAL  =      F    real-space projection
   NLSPLINE    = F    spline interpolate recip. space projectors
   LCOMPAT=      F    compatible to vasp.4.4
   GGA_COMPAT  = T    GGA compatible to vasp.4.4-vasp.4.6
   LMAXPAW     = -100 max onsite density
   LMAXMIX     =    4 max onsite mixed and CHGCAR
   VOSKOWN=      0    Vosko Wilk Nusair interpolation
   ROPT   =    0.00000   0.00000   0.00000   0.00000
   ROPT   =    0.00000
 Ionic relaxation
   EDIFFG = -.1E-02   stopping-criterion for IOM
   NSW    =      0    number of steps for IOM
   NBLOCK =      1;   KBLOCK =      1    inner block; outer block 
   IBRION =     -1    ionic relax: 0-MD 1-quasi-New 2-CG
   NFREE  =      0    steps in history (QN), initial steepest desc. (CG)
   ISIF   =     -1    stress and relaxation
   IWAVPR =     10    prediction:  0-non 1-charg 2-wave 3-comb
   ISYM   =      3    0-nonsym 1-usesym 2-fastsym
   LCORR  =      T    Harris-Foulkes like correction to forces

   POTIM  = 0.5000    time-step for ionic-motion
   TEIN   =    0.0    initial temperature
   TEBEG  =    0.0;   TEEND  =   0.0 temperature during run
   SMASS  =  -3.00    Nose mass-parameter (am)
   estimated Nose-frequenzy (Omega)   =  0.10E-29 period in steps = 0.13E+47 mass=  -0.956E-27a.u.
   SCALEE = 1.0000    scale energy and forces
   NPACO  =    256;   APACO  = 16.0  distance and # of slots for P.C.
   PSTRESS=    0.0 pullay stress

  Mass of Ions in am
   POMASS = 112.41 63.55 72.61 78.96 32.07
  Ionic Valenz
   ZVAL   =  12.00 11.00  4.00  6.00  6.00
  Atomic Wigner-Seitz radii
   RWIGS  =  -1.00 -1.00 -1.00 -1.00 -1.00
  virtual crystal weights 
   VCA    =   1.00  1.00  1.00  1.00  1.00
   NELECT =     124.0000    total number of electrons
   NUPDOWN=      -1.0000    fix difference up-down

 DOS related values:
   EMIN   =  10.00;   EMAX   =-10.00  energy-range for DOS
   EFERMI =   0.00
   ISMEAR =    -5;   SIGMA  =   0.20  broadening in eV -4-tet -1-fermi 0-gaus

 Electronic relaxation 2 (details)
   IALGO  =     38    algorithm
   LDIAG  =      T    sub-space diagonalisation (order eigenvalues)
   LSUBROT=      F    optimize rotation matrix (better conditioning)
   TURBO    =      0    0=normal 1=particle mesh
   IRESTART =      0    0=no restart 2=restart with 2 vectors
   NREBOOT  =      0    no. of reboots
   NMIN     =      0    reboot dimension
   EREF     =   0.00    reference energy to select bands
   IMIX   =      1    mixing-type and parameters
     AMIX     =   0.40;   BMIX     =  1.00
     AMIX_MAG =   1.60;   BMIX_MAG =  1.00
     AMIN     =   0.10
     WC   =   100.;   INIMIX=   1;  MIXPRE=   1;  MAXMIX= -45

 Intra band minimization:
   WEIMIN = 0.0000     energy-eigenvalue tresh-hold
   EBREAK =  0.11E-06  absolut break condition
   DEPER  =   0.30     relativ break condition  

   TIME   =   0.40     timestep for ELM

  volume/ion in A,a.u.               =      21.75       146.80
  Fermi-wavevector in a.u.,A,eV,Ry     =   1.160546  2.193114 18.325241  1.346867
  Thomas-Fermi vector in A             =   2.297127
 
 Write flags
   LWAVE        =      T    write WAVECAR
   LDOWNSAMPLE  =      F    k-point downsampling of WAVECAR
   LCHARG       =      T    write CHGCAR
   LVTOT        =      F    write LOCPOT, total local potential
   LVHAR        =      F    write LOCPOT, Hartree potential only
   LELF         =      F    write electronic localiz. function (ELF)
   LORBIT       =     10    0 simple, 1 ext, 2 COOP (PROOUT), +10 PAW based schemes


 Dipole corrections
   LMONO  =      F    monopole corrections only (constant potential shift)
   LDIPOL =      F    correct potential (dipole corrections)
   IDIPOL =      0    1-x, 2-y, 3-z, 4-all directions 
   EPSILON=  1.0000000 bulk dielectric constant

 Exchange correlation treatment:
   GGA     =    PE    GGA type
   LEXCH   =     8    internal setting for exchange type
   VOSKOWN=      0    Vosko Wilk Nusair interpolation
   EXXOEP  =     0    0=HF, 1=EXX-LHF (local Hartree Fock) 2=EXX OEP
   LHFCALC =     T    Hartree Fock is set to
   LSYMGRAD=     F    symmetrize gradient (conserves proper symmetry)
   PRECFOCK=fast      Normal, Fast or Accurate (Low or Medium for compatibility)
   LRHFCALC=     F    long range Hartree Fock
   LRSCOR  =     F    long range correlation only (use DFT for short range part)
   LTHOMAS =     F    Thomas Fermi screening in HF
   LMODELHF=     F    short range full HF, long range fraction AEXX
   LFOCKACE=     T    use Adeptively-Compressed-Exchange operator
   ENCUT4O =  -1.0   cutoff for four orbital integrals eV
   LMAXFOCK=     4    L truncation for augmentation on plane wave grid
   LMAXFOCKAE=  -1    L truncation for all-electron charge restoration on plane wave grid
   NMAXFOCKAE=   1    number of basis functions for all-electron charge restoration
   LFOCKAEDFT=     F  apply the AE augmentation even for DFT
   NKREDX  =     1    reduce k-point grid by
   NKREDY  =     1    reduce k-point grid by
   NKREDZ  =     1    reduce k-point grid by
   SHIFTRED=     F    shift reduced grid of Gamma
   HFKIDENT=     F    idential grid for each k-point
   ODDONLY =     F    use only odd q-grid points
   EVENONLY=     F    use only even q-grid points
   HFALPHA =   -1.0000 decay constant for conv. correction
   MCALPHA =    0.0000 extent of test-charge in conv. correction in multipole expansion
   AEXX    =    0.2500 exact exchange contribution
   HFSCREEN=    0.2000 screening length (either q_TF or 0.3 A-1)
   HFSCREENC=   0.2000 screening length for correlation (either q_TF or 0.3 A-1)
   HFRCUT  =    0.0000 spherical cutoff for potential kernel
   ALDAX   =    0.7500 LDA exchange part
   AGGAX   =    0.7500 GGA exchange part
   ALDAC   =    1.0000 LDA correlation
   AGGAC   =    1.0000 GGA correlation
   ENCUTFOCK=  -1.0 apply spherical cutoff to Coloumb kernel
   NBANDSGWLOW=     1    first orbital included in HF term
   NBLOCK_FOCK=    64    blocking factor in FOCK_ACC
 Linear response parameters
   LEPSILON=     F    determine dielectric tensor
   LRPA    =     F    only Hartree local field effects (RPA)
   LNABLA  =     F    use nabla operator in PAW spheres
   LVEL    =     F    velocity operator in full k-point grid
   LINTERFAST=   F  fast interpolation
   KINTER  =     0    interpolate to denser k-point grid
   CSHIFT  =0.1000    complex shift for real part using Kramers Kronig
   OMEGAMAX=  -1.0    maximum frequency
   DEG_THRESHOLD= 0.2000000E-02 threshold for treating states as degnerate
   RTIME   =   -0.100 relaxation time in fs
  (WPLASMAI=    0.000 imaginary part of plasma frequency in eV, 0.658/RTIME)
   DFIELD  = 0.0000000 0.0000000 0.0000000 field for delta impulse in time
 
 Orbital magnetization related:
   ORBITALMAG=     F  switch on orbital magnetization
   LCHIMAG   =     F  perturbation theory with respect to B field
   DQ        =  0.001000  dq finite difference perturbation B field
   LLRAUG    =     F  two centre corrections for induced B field



--------------------------------------------------------------------------------------------------------


 Static calculation
 charge density and potential will be updated during run
 non-spin polarized calculation
 Variant of blocked Davidson
 Davidson routine will perform the subspace rotation
 perform sub-space diagonalisation
    after iterative eigenvector-optimisation
 Kerker-like  mixing scheme
 using additional bands          160
 reciprocal scheme for non local part
 use partial core corrections
 calculate Harris-corrections to forces 
   (improved forces if not selfconsistent)
 use gradient corrections 
 use of overlap-Matrix (Vanderbilt PP)
 Fermi weights with tetrahedron method with Bloechl corrections


--------------------------------------------------------------------------------------------------------


  energy-cutoff  :      550.00
  volume of cell :      348.06
      direct lattice vectors                 reciprocal lattice vectors
     6.467938204  0.002805599  0.004147718     0.154608869 -0.000064843 -0.000102779
     0.002828104  6.778767869 -0.022414530    -0.000064306  0.147521089  0.000492461
     0.005266229 -0.026498887  7.938664094    -0.000080960  0.000416554  0.125967222

  length of vectors
     6.467940142  6.778805517  7.938710067     0.154608916  0.147521925  0.125967937


 
 old parameters found on file WAVECAR:
  energy-cutoff  :      550.00
  volume of cell :      348.06
      direct lattice vectors                 reciprocal lattice vectors
     6.467938204  0.002805599  0.004147718     0.154608869 -0.000064843 -0.000102779
     0.002828104  6.778767869 -0.022414530    -0.000064306  0.147521089  0.000492461
     0.005266229 -0.026498887  7.938664094    -0.000080960  0.000416554  0.125967222

  length of vectors

 
 k-points in units of 2pi/SCALE and weight: elect                                   
   0.00000000  0.00000000  0.00000000       0.006
   0.02576814 -0.00001081 -0.00001713       0.011
   0.05153629 -0.00002161 -0.00003426       0.011
   0.07730443 -0.00003242 -0.00005139       0.006
  -0.00001072  0.02458685  0.00008208       0.011
   0.02575743  0.02457604  0.00006495       0.011
   0.05152557  0.02456523  0.00004782       0.011
   0.07729372  0.02455443  0.00003069       0.011
  -0.05154701  0.02460846  0.00011634       0.011
  -0.02577886  0.02459766  0.00009921       0.011
  -0.00002144  0.04917370  0.00016415       0.011
   0.02574671  0.04916289  0.00014702       0.011
   0.05151485  0.04915208  0.00012989       0.011
   0.07728300  0.04914128  0.00011276       0.011
  -0.05155772  0.04919531  0.00019841       0.011
  -0.02578958  0.04918450  0.00018128       0.011
  -0.00003215  0.07376054  0.00024623       0.006
   0.02573599  0.07374974  0.00022910       0.011
   0.05150414  0.07373893  0.00021197       0.011
   0.07727228  0.07372812  0.00019484       0.006
  -0.00001619  0.00008331  0.02519344       0.011
   0.02575195  0.00007250  0.02517631       0.011
   0.05152010  0.00006170  0.02515918       0.011
   0.07728824  0.00005089  0.02514206       0.011
  -0.05155248  0.00010493  0.02522770       0.011
  -0.02578434  0.00009412  0.02521057       0.011
  -0.00002691  0.02467016  0.02527552       0.011
   0.02574124  0.02465935  0.02525839       0.011
   0.05150938  0.02464854  0.02524126       0.011
   0.07727752  0.02463774  0.02522413       0.011
  -0.05156320  0.02469177  0.02530978       0.011
  -0.02579505  0.02468097  0.02529265       0.011
  -0.00003763  0.04925701  0.02535760       0.011
   0.02573052  0.04924620  0.02534047       0.011
   0.05149866  0.04923539  0.02532334       0.011
   0.07726681  0.04922459  0.02530621       0.011
  -0.05157392  0.04927862  0.02539186       0.011
  -0.02580577  0.04926781  0.02537473       0.011
  -0.00004835  0.07384386  0.02543968       0.011
   0.02571980  0.07383305  0.02542255       0.011
   0.05148794  0.07382224  0.02540542       0.011
   0.07725609  0.07381143  0.02538829       0.011
  -0.05158463  0.07386547  0.02547393       0.011
  -0.02581649  0.07385466  0.02545680       0.011
   0.00000524 -0.04909039  0.02502929       0.011
   0.02577339 -0.04910119  0.02501216       0.011
   0.05154153 -0.04911200  0.02499503       0.011
   0.07730968 -0.04912281  0.02497790       0.011
  -0.05153105 -0.04906877  0.02506355       0.011
  -0.02576290 -0.04907958  0.02504642       0.011
  -0.00000547 -0.02450354  0.02511137       0.011
   0.02576267 -0.02451434  0.02509424       0.011
   0.05153082 -0.02452515  0.02507711       0.011
   0.07729896 -0.02453596  0.02505998       0.011
  -0.05154176 -0.02448192  0.02514563       0.011
  -0.02577362 -0.02449273  0.02512850       0.011
  -0.00003238  0.00016662  0.05038689       0.011
   0.02573576  0.00015581  0.05036976       0.011
   0.05150391  0.00014501  0.05035263       0.011
   0.07727205  0.00013420  0.05033550       0.011
  -0.05156867  0.00018824  0.05042115       0.011
  -0.02580053  0.00017743  0.05040402       0.011
  -0.00004310  0.02475347  0.05046897       0.011
   0.02572504  0.02474266  0.05045184       0.011
   0.05149319  0.02473186  0.05043471       0.011
   0.07726133  0.02472105  0.05041758       0.011
  -0.05157939  0.02477508  0.05050323       0.011
  -0.02581125  0.02476428  0.05048610       0.011
  -0.00005382  0.04934032  0.05055104       0.011
   0.02571433  0.04932951  0.05053391       0.011
   0.05148247  0.04931870  0.05051678       0.011
   0.07725061  0.04930790  0.05049965       0.011
  -0.05159011  0.04936193  0.05058530       0.011
  -0.02582196  0.04935113  0.05056817       0.011
  -0.00006454  0.07392717  0.05063312       0.011
   0.02570361  0.07391636  0.05061599       0.011
   0.05147175  0.07390555  0.05059886       0.011
   0.07723990  0.07389475  0.05058173       0.011
  -0.05160083  0.07394878  0.05066738       0.011
  -0.02583268  0.07393797  0.05065025       0.011
  -0.00001095 -0.04900707  0.05022274       0.011
   0.02575720 -0.04901788  0.05020561       0.011
   0.05152534 -0.04902869  0.05018848       0.011
   0.07729349 -0.04903950  0.05017135       0.011
  -0.05154724 -0.04898546  0.05025699       0.011
  -0.02577909 -0.04899627  0.05023986       0.011
  -0.00002167 -0.02442023  0.05030481       0.011
   0.02574648 -0.02443103  0.05028768       0.011
   0.05151462 -0.02444184  0.05027055       0.011
   0.07728277 -0.02445265  0.05025342       0.011
  -0.05155796 -0.02439861  0.05033907       0.011
  -0.02578981 -0.02440942  0.05032194       0.011
 
 k-points in reciprocal lattice and weights: elect                                   
   0.00000000  0.00000000  0.00000000       0.006
   0.16666667  0.00000000  0.00000000       0.011
   0.33333333  0.00000000 -0.00000000       0.011
   0.50000000  0.00000000  0.00000000       0.006
  -0.00000000  0.16666667 -0.00000000       0.011
   0.16666667  0.16666667 -0.00000000       0.011
   0.33333333  0.16666667  0.00000000       0.011
   0.50000000  0.16666667 -0.00000000       0.011
  -0.33333333  0.16666667 -0.00000000       0.011
  -0.16666667  0.16666667 -0.00000000       0.011
   0.00000000  0.33333333  0.00000000       0.011
   0.16666667  0.33333333 -0.00000000       0.011
   0.33333333  0.33333333 -0.00000000       0.011
   0.50000000  0.33333333  0.00000000       0.011
  -0.33333333  0.33333333  0.00000000       0.011
  -0.16666667  0.33333333 -0.00000000       0.011
   0.00000000  0.50000000 -0.00000000       0.006
   0.16666667  0.50000000  0.00000000       0.011
   0.33333333  0.50000000 -0.00000000       0.011
   0.50000000  0.50000000 -0.00000000       0.006
   0.00000000 -0.00000000  0.20000000       0.011
   0.16666667  0.00000000  0.20000000       0.011
   0.33333333 -0.00000000  0.20000000       0.011
   0.50000000 -0.00000000  0.20000000       0.011
  -0.33333333  0.00000000  0.20000000       0.011
  -0.16666667 -0.00000000  0.20000000       0.011
   0.00000000  0.16666667  0.20000000       0.011
   0.16666667  0.16666667  0.20000000       0.011
   0.33333333  0.16666667  0.20000000       0.011
   0.50000000  0.16666667  0.20000000       0.011
  -0.33333333  0.16666667  0.20000000       0.011
  -0.16666667  0.16666667  0.20000000       0.011
   0.00000000  0.33333333  0.20000000       0.011
   0.16666667  0.33333333  0.20000000       0.011
   0.33333333  0.33333333  0.20000000       0.011
   0.50000000  0.33333333  0.20000000       0.011
  -0.33333333  0.33333333  0.20000000       0.011
  -0.16666667  0.33333333  0.20000000       0.011
   0.00000000  0.50000000  0.20000000       0.011
   0.16666667  0.50000000  0.20000000       0.011
   0.33333333  0.50000000  0.20000000       0.011
   0.50000000  0.50000000  0.20000000       0.011
  -0.33333333  0.50000000  0.20000000       0.011
  -0.16666667  0.50000000  0.20000000       0.011
   0.00000000 -0.33333333  0.20000000       0.011
   0.16666667 -0.33333333  0.20000000       0.011
   0.33333333 -0.33333333  0.20000000       0.011
   0.50000000 -0.33333333  0.20000000       0.011
  -0.33333333 -0.33333333  0.20000000       0.011
  -0.16666667 -0.33333333  0.20000000       0.011
   0.00000000 -0.16666667  0.20000000       0.011
   0.16666667 -0.16666667  0.20000000       0.011
   0.33333333 -0.16666667  0.20000000       0.011
   0.50000000 -0.16666667  0.20000000       0.011
  -0.33333333 -0.16666667  0.20000000       0.011
  -0.16666667 -0.16666667  0.20000000       0.011
   0.00000000 -0.00000000  0.40000000       0.011
   0.16666667  0.00000000  0.40000000       0.011
   0.33333333  0.00000000  0.40000000       0.011
   0.50000000  0.00000000  0.40000000       0.011
  -0.33333333  0.00000000  0.40000000       0.011
  -0.16666667  0.00000000  0.40000000       0.011
   0.00000000  0.16666667  0.40000000       0.011
   0.16666667  0.16666667  0.40000000       0.011
   0.33333333  0.16666667  0.40000000       0.011
   0.50000000  0.16666667  0.40000000       0.011
  -0.33333333  0.16666667  0.40000000       0.011
  -0.16666667  0.16666667  0.40000000       0.011
   0.00000000  0.33333333  0.40000000       0.011
   0.16666667  0.33333333  0.40000000       0.011
   0.33333333  0.33333333  0.40000000       0.011
   0.50000000  0.33333333  0.40000000       0.011
  -0.33333333  0.33333333  0.40000000       0.011
  -0.16666667  0.33333333  0.40000000       0.011
   0.00000000  0.50000000  0.40000000       0.011
   0.16666667  0.50000000  0.40000000       0.011
   0.33333333  0.50000000  0.40000000       0.011
   0.50000000  0.50000000  0.40000000       0.011
  -0.33333333  0.50000000  0.40000000       0.011
  -0.16666667  0.50000000  0.40000000       0.011
   0.00000000 -0.33333333  0.40000000       0.011
   0.16666667 -0.33333333  0.40000000       0.011
   0.33333333 -0.33333333  0.40000000       0.011
   0.50000000 -0.33333333  0.40000000       0.011
  -0.33333333 -0.33333333  0.40000000       0.011
  -0.16666667 -0.33333333  0.40000000       0.011
   0.00000000 -0.16666667  0.40000000       0.011
   0.16666667 -0.16666667  0.40000000       0.011
   0.33333333 -0.16666667  0.40000000       0.011
   0.50000000 -0.16666667  0.40000000       0.011
  -0.33333333 -0.16666667  0.40000000       0.011
  -0.16666667 -0.16666667  0.40000000       0.011
 
 position of ions in fractional coordinates (direct lattice) 
   0.01361433  0.13710211  0.99368521
   0.49773402  0.83458619  0.50541295
   0.02386857  0.68423916  0.25447508
   0.49054483  0.33341094  0.73391061
   0.51792638  0.30307162  0.26099769
   0.99660759  0.65470313  0.75034246
   0.00290630  0.16185790  0.50642557
   0.50274377  0.80653183  0.99338733
   0.60048062  0.15105656  0.99064727
   0.14387236  0.33618853  0.26745498
   0.64719752  0.64124324  0.23576593
   0.14689965  0.77922555  0.99590132
   0.09837439  0.83324002  0.50949633
   0.63639546  0.64245514  0.76405057
   0.13392917  0.33531784  0.73139330
   0.64690505  0.18577023  0.50549339
 
 position of ions in cartesian coordinates  (Angst):
   0.09367736  0.90309005  7.88551650
   3.22433480  5.64546962  3.99566127
   0.15765566  4.63162211  2.00495431
   3.17762148  2.24204379  5.82083122
   3.35214742  2.04898914  2.06732801
   6.45179935  4.42099340  5.94617557
   0.02192245  1.08378560  4.01672658
   3.25922799  5.44237892  7.87017550
   3.88951569  0.99941101  7.86352067
   0.93291680  2.27226041  2.11629649
   4.18908865  4.34240729  1.85997774
   0.95758624  5.25621098  7.88926934
   0.64131906  5.63511556  4.02645154
   4.12200713  4.33659323  6.05378011
   0.87104560  2.25403644  5.79932522
   4.18732932  1.24771322  4.01146148
 


--------------------------------------------------------------------------------------------------------


 k-point   1 :   0.0000 0.0000 0.0000  plane waves:   10169
 k-point   2 :   0.1667 0.0000 0.0000  plane waves:   10179
 k-point   3 :   0.3333 0.0000-0.0000  plane waves:   10162
 k-point   4 :   0.5000 0.0000 0.0000  plane waves:   10138
 k-point   5 :  -0.0000 0.1667-0.0000  plane waves:   10185
 k-point   6 :   0.1667 0.1667-0.0000  plane waves:   10199
 k-point   7 :   0.3333 0.1667 0.0000  plane waves:   10185
 k-point   8 :   0.5000 0.1667-0.0000  plane waves:   10181
 k-point   9 :  -0.3333 0.1667-0.0000  plane waves:   10187
 k-point  10 :  -0.1667 0.1667-0.0000  plane waves:   10190
 k-point  11 :   0.0000 0.3333 0.0000  plane waves:   10206
 k-point  12 :   0.1667 0.3333-0.0000  plane waves:   10213
 k-point  13 :   0.3333 0.3333-0.0000  plane waves:   10199
 k-point  14 :   0.5000 0.3333 0.0000  plane waves:   10205
 k-point  15 :  -0.3333 0.3333 0.0000  plane waves:   10198
 k-point  16 :  -0.1667 0.3333-0.0000  plane waves:   10215
 k-point  17 :   0.0000 0.5000-0.0000  plane waves:   10216
 k-point  18 :   0.1667 0.5000 0.0000  plane waves:   10234
 k-point  19 :   0.3333 0.5000-0.0000  plane waves:   10204
 k-point  20 :   0.5000 0.5000-0.0000  plane waves:   10174
 k-point  21 :   0.0000-0.0000 0.2000  plane waves:   10185
 k-point  22 :   0.1667 0.0000 0.2000  plane waves:   10186
 k-point  23 :   0.3333-0.0000 0.2000  plane waves:   10172
 k-point  24 :   0.5000-0.0000 0.2000  plane waves:   10177
 k-point  25 :  -0.3333 0.0000 0.2000  plane waves:   10176
 k-point  26 :  -0.1667-0.0000 0.2000  plane waves:   10187
 k-point  27 :   0.0000 0.1667 0.2000  plane waves:   10192
 k-point  28 :   0.1667 0.1667 0.2000  plane waves:   10190
 k-point  29 :   0.3333 0.1667 0.2000  plane waves:   10186
 k-point  30 :   0.5000 0.1667 0.2000  plane waves:   10181
 k-point  31 :  -0.3333 0.1667 0.2000  plane waves:   10194
 k-point  32 :  -0.1667 0.1667 0.2000  plane waves:   10193
 k-point  33 :   0.0000 0.3333 0.2000  plane waves:   10217
 k-point  34 :   0.1667 0.3333 0.2000  plane waves:   10203
 k-point  35 :   0.3333 0.3333 0.2000  plane waves:   10183
 k-point  36 :   0.5000 0.3333 0.2000  plane waves:   10185
 k-point  37 :  -0.3333 0.3333 0.2000  plane waves:   10181
 k-point  38 :  -0.1667 0.3333 0.2000  plane waves:   10199
 k-point  39 :   0.0000 0.5000 0.2000  plane waves:   10224
 k-point  40 :   0.1667 0.5000 0.2000  plane waves:   10200
 k-point  41 :   0.3333 0.5000 0.2000  plane waves:   10189
 k-point  42 :   0.5000 0.5000 0.2000  plane waves:   10196
 k-point  43 :  -0.3333 0.5000 0.2000  plane waves:   10188
 k-point  44 :  -0.1667 0.5000 0.2000  plane waves:   10204
 k-point  45 :   0.0000-0.3333 0.2000  plane waves:   10202
 k-point  46 :   0.1667-0.3333 0.2000  plane waves:   10194
 k-point  47 :   0.3333-0.3333 0.2000  plane waves:   10192
 k-point  48 :   0.5000-0.3333 0.2000  plane waves:   10193
 k-point  49 :  -0.3333-0.3333 0.2000  plane waves:   10189
 k-point  50 :  -0.1667-0.3333 0.2000  plane waves:   10195
 k-point  51 :   0.0000-0.1667 0.2000  plane waves:   10194
 k-point  52 :   0.1667-0.1667 0.2000  plane waves:   10193
 k-point  53 :   0.3333-0.1667 0.2000  plane waves:   10191
 k-point  54 :   0.5000-0.1667 0.2000  plane waves:   10181
 k-point  55 :  -0.3333-0.1667 0.2000  plane waves:   10192
 k-point  56 :  -0.1667-0.1667 0.2000  plane waves:   10200
 k-point  57 :   0.0000-0.0000 0.4000  plane waves:   10169
 k-point  58 :   0.1667 0.0000 0.4000  plane waves:   10184
 k-point  59 :   0.3333 0.0000 0.4000  plane waves:   10212
 k-point  60 :   0.5000 0.0000 0.4000  plane waves:   10211
 k-point  61 :  -0.3333 0.0000 0.4000  plane waves:   10217
 k-point  62 :  -0.1667 0.0000 0.4000  plane waves:   10177
 k-point  63 :   0.0000 0.1667 0.4000  plane waves:   10191
 k-point  64 :   0.1667 0.1667 0.4000  plane waves:   10193
 k-point  65 :   0.3333 0.1667 0.4000  plane waves:   10198
 k-point  66 :   0.5000 0.1667 0.4000  plane waves:   10200
 k-point  67 :  -0.3333 0.1667 0.4000  plane waves:   10192
 k-point  68 :  -0.1667 0.1667 0.4000  plane waves:   10187
 k-point  69 :   0.0000 0.3333 0.4000  plane waves:   10199
 k-point  70 :   0.1667 0.3333 0.4000  plane waves:   10202
 k-point  71 :   0.3333 0.3333 0.4000  plane waves:   10198
 k-point  72 :   0.5000 0.3333 0.4000  plane waves:   10185
 k-point  73 :  -0.3333 0.3333 0.4000  plane waves:   10196
 k-point  74 :  -0.1667 0.3333 0.4000  plane waves:   10202
 k-point  75 :   0.0000 0.5000 0.4000  plane waves:   10223
 k-point  76 :   0.1667 0.5000 0.4000  plane waves:   10210
 k-point  77 :   0.3333 0.5000 0.4000  plane waves:   10189
 k-point  78 :   0.5000 0.5000 0.4000  plane waves:   10196
 k-point  79 :  -0.3333 0.5000 0.4000  plane waves:   10186
 k-point  80 :  -0.1667 0.5000 0.4000  plane waves:   10211
 k-point  81 :   0.0000-0.3333 0.4000  plane waves:   10204
 k-point  82 :   0.1667-0.3333 0.4000  plane waves:   10210
 k-point  83 :   0.3333-0.3333 0.4000  plane waves:   10191
 k-point  84 :   0.5000-0.3333 0.4000  plane waves:   10184
 k-point  85 :  -0.3333-0.3333 0.4000  plane waves:   10192
 k-point  86 :  -0.1667-0.3333 0.4000  plane waves:   10202
 k-point  87 :   0.0000-0.1667 0.4000  plane waves:   10203
 k-point  88 :   0.1667-0.1667 0.4000  plane waves:   10200
[...]
   52.402203    0.863062    0.862992    0.863100   -0.000005    0.000002    0.000007
   52.420958    0.863176    0.863106    0.863213   -0.000005    0.000002    0.000007
   52.439713    0.863289    0.863219    0.863327   -0.000005    0.000002    0.000007
   52.458469    0.863402    0.863332    0.863440   -0.000005    0.000002    0.000007
   52.477224    0.863515    0.863445    0.863553   -0.000005    0.000002    0.000007
   52.495979    0.863628    0.863558    0.863665   -0.000005    0.000002    0.000007
   52.514734    0.863740    0.863671    0.863778   -0.000005    0.000002    0.000007
   52.533490    0.863853    0.863784    0.863890   -0.000005    0.000002    0.000007
   52.552245    0.863965    0.863896    0.864003   -0.000005    0.000002    0.000007
   52.571000    0.864077    0.864008    0.864115   -0.000005    0.000002    0.000007
   52.589755    0.864189    0.864120    0.864227   -0.000005    0.000002    0.000007
   52.608511    0.864301    0.864232    0.864339   -0.000005    0.000002    0.000007
   52.627266    0.864413    0.864344    0.864450   -0.000005    0.000002    0.000007
   52.646021    0.864524    0.864456    0.864562   -0.000005    0.000002    0.000007
   52.664777    0.864636    0.864567    0.864673   -0.000005    0.000002    0.000007
   52.683532    0.864747    0.864679    0.864784   -0.000005    0.000002    0.000006
   52.702287    0.864858    0.864790    0.864895   -0.000005    0.000002    0.000006
   52.721042    0.864969    0.864901    0.865006   -0.000005    0.000002    0.000006
   52.739798    0.865080    0.865012    0.865117   -0.000005    0.000002    0.000006
   52.758553    0.865190    0.865123    0.865228   -0.000005    0.000002    0.000006
   52.777308    0.865301    0.865233    0.865338   -0.000005    0.000002    0.000006
   52.796063    0.865411    0.865344    0.865448   -0.000005    0.000002    0.000006
   52.814819    0.865521    0.865454    0.865558   -0.000005    0.000002    0.000006
   52.833574    0.865631    0.865564    0.865668   -0.000005    0.000002    0.000006
   52.852329    0.865741    0.865674    0.865778   -0.000005    0.000002    0.000006
   52.871084    0.865851    0.865784    0.865888   -0.000005    0.000002    0.000006
   52.889840    0.865960    0.865894    0.865997   -0.000005    0.000002    0.000006
   52.908595    0.866070    0.866003    0.866107   -0.000005    0.000002    0.000006
   52.927350    0.866179    0.866112    0.866216   -0.000005    0.000002    0.000006
   52.946105    0.866288    0.866222    0.866325   -0.000005    0.000002    0.000006
   52.964861    0.866397    0.866331    0.866434   -0.000005    0.000002    0.000006
   52.983616    0.866506    0.866440    0.866543   -0.000005    0.000002    0.000006
   53.002371    0.866615    0.866549    0.866651   -0.000005    0.000001    0.000006
   53.021127    0.866723    0.866657    0.866760   -0.000005    0.000001    0.000006
   53.039882    0.866832    0.866766    0.866868   -0.000005    0.000001    0.000006
   53.058637    0.866940    0.866874    0.866976   -0.000005    0.000001    0.000006
   53.077392    0.867048    0.866982    0.867084   -0.000005    0.000001    0.000006
   53.096148    0.867156    0.867090    0.867192   -0.000005    0.000001    0.000006
   53.114903    0.867263    0.867198    0.867300   -0.000005    0.000001    0.000006
   53.133658    0.867371    0.867306    0.867408   -0.000005    0.000001    0.000006
   53.152413    0.867479    0.867413    0.867515   -0.000005    0.000001    0.000006
   53.171169    0.867586    0.867521    0.867622   -0.000005    0.000001    0.000006
   53.189924    0.867693    0.867628    0.867729   -0.000005    0.000001    0.000006
   53.208679    0.867800    0.867735    0.867836   -0.000005    0.000001    0.000006
   53.227434    0.867907    0.867842    0.867943   -0.000005    0.000001    0.000006
   53.246190    0.868014    0.867949    0.868050   -0.000005    0.000001    0.000006
   53.264945    0.868120    0.868056    0.868157   -0.000005    0.000001    0.000006
   53.283700    0.868227    0.868163    0.868263   -0.000005    0.000001    0.000006
   53.302455    0.868333    0.868269    0.868369   -0.000005    0.000001    0.000006
   53.321211    0.868439    0.868375    0.868475   -0.000005    0.000001    0.000006
   53.339966    0.868545    0.868481    0.868581   -0.000005    0.000001    0.000006
   53.358721    0.868651    0.868587    0.868687   -0.000005    0.000001    0.000006
   53.377476    0.868757    0.868693    0.868793   -0.000005    0.000001    0.000006
   53.396232    0.868863    0.868799    0.868899   -0.000005    0.000001    0.000006
   53.414987    0.868968    0.868905    0.869004   -0.000005    0.000001    0.000006
   53.433742    0.869073    0.869010    0.869109   -0.000005    0.000001    0.000006
   53.452498    0.869179    0.869115    0.869215   -0.000005    0.000001    0.000006
   53.471253    0.869284    0.869220    0.869320   -0.000005    0.000001    0.000006
   53.490008    0.869389    0.869326    0.869424   -0.000005    0.000001    0.000006
   53.508763    0.869493    0.869430    0.869529   -0.000005    0.000001    0.000006
   53.527519    0.869598    0.869535    0.869634   -0.000005    0.000001    0.000006
   53.546274    0.869702    0.869640    0.869738   -0.000005    0.000001    0.000006
   53.565029    0.869807    0.869744    0.869843   -0.000005    0.000001    0.000006
   53.583784    0.869911    0.869848    0.869947   -0.000005    0.000001    0.000006
   53.602540    0.870015    0.869953    0.870051   -0.000005    0.000001    0.000006
   53.621295    0.870119    0.870057    0.870155   -0.000005    0.000001    0.000006
   53.640050    0.870223    0.870161    0.870258   -0.000005    0.000001    0.000006
   53.658805    0.870326    0.870264    0.870362   -0.000005    0.000001    0.000006
   53.677561    0.870430    0.870368    0.870465   -0.000005    0.000001    0.000006
   53.696316    0.870533    0.870471    0.870569   -0.000005    0.000001    0.000006
   53.715071    0.870636    0.870575    0.870672   -0.000005    0.000001    0.000006
   53.733826    0.870740    0.870678    0.870775   -0.000005    0.000001    0.000006
   53.752582    0.870843    0.870781    0.870878   -0.000005    0.000001    0.000006
   53.771337    0.870945    0.870884    0.870981   -0.000005    0.000001    0.000006
   53.790092    0.871048    0.870987    0.871084   -0.000005    0.000001    0.000006
   53.808848    0.871151    0.871090    0.871186   -0.000005    0.000001    0.000006
   53.827603    0.871253    0.871192    0.871288   -0.000005    0.000001    0.000006
   53.846358    0.871355    0.871294    0.871391   -0.000005    0.000001    0.000006
   53.865113    0.871458    0.871397    0.871493   -0.000005    0.000000    0.000006
   53.883869    0.871560    0.871499    0.871595   -0.000005    0.000000    0.000006
   53.902624    0.871661    0.871601    0.871697   -0.000005    0.000000    0.000006
   53.921379    0.871763    0.871703    0.871798   -0.000005    0.000000    0.000006
   53.940134    0.871865    0.871804    0.871900   -0.000005    0.000000    0.000006
   53.958890    0.871966    0.871906    0.872001   -0.000005    0.000000    0.000006
   53.977645    0.872068    0.872007    0.872103   -0.000006    0.000000    0.000006
   53.996400    0.872169    0.872109    0.872204   -0.000006    0.000000    0.000006
   54.015155    0.872270    0.872210    0.872305   -0.000006    0.000000    0.000006
   54.033911    0.872371    0.872311    0.872406   -0.000006    0.000000    0.000006
   54.052666    0.872472    0.872412    0.872507   -0.000006    0.000000    0.000006
   54.071421    0.872572    0.872513    0.872607   -0.000006    0.000000    0.000006
   54.090176    0.872673    0.872613    0.872708   -0.000006    0.000000    0.000006
   54.108932    0.872773    0.872714    0.872808   -0.000006    0.000000    0.000006
   54.127687    0.872874    0.872814    0.872909   -0.000006    0.000000    0.000006
   54.146442    0.872974    0.872915    0.873009   -0.000006    0.000000    0.000006
   54.165198    0.873074    0.873015    0.873109   -0.000006    0.000000    0.000006
   54.183953    0.873174    0.873115    0.873209   -0.000006    0.000000    0.000006
   54.202708    0.873274    0.873215    0.873308   -0.000006    0.000000    0.000006
   54.221463    0.873373    0.873314    0.873408   -0.000006    0.000000    0.000006
   54.240219    0.873473    0.873414    0.873507   -0.000006    0.000000    0.000006
   54.258974    0.873572    0.873514    0.873607   -0.000006    0.000000    0.000006
   54.277729    0.873671    0.873613    0.873706   -0.000006    0.000000    0.000006
   54.296484    0.873770    0.873712    0.873805   -0.000006    0.000000    0.000006
   54.315240    0.873869    0.873811    0.873904   -0.000006    0.000000    0.000006
   54.333995    0.873968    0.873910    0.874003   -0.000006    0.000000    0.000006
   54.352750    0.874067    0.874009    0.874102   -0.000006    0.000000    0.000006
   54.371505    0.874166    0.874108    0.874200   -0.000006    0.000000    0.000006
   54.390261    0.874264    0.874206    0.874299   -0.000006   -0.000000    0.000006
   54.409016    0.874363    0.874305    0.874397   -0.000006   -0.000000    0.000006
   54.427771    0.874461    0.874403    0.874495   -0.000006   -0.000000    0.000006
   54.446526    0.874559    0.874501    0.874593   -0.000006   -0.000000    0.000006
   54.465282    0.874657    0.874599    0.874691   -0.000006   -0.000000    0.000006
   54.484037    0.874755    0.874697    0.874789   -0.000006   -0.000000    0.000006
   54.502792    0.874852    0.874795    0.874887   -0.000006   -0.000000    0.000006
   54.521547    0.874950    0.874893    0.874984   -0.000006   -0.000000    0.000006
   54.540303    0.875048    0.874991    0.875082   -0.000006   -0.000000    0.000006
   54.559058    0.875145    0.875088    0.875179   -0.000006   -0.000000    0.000006
   54.577813    0.875242    0.875185    0.875276   -0.000006   -0.000000    0.000006
   54.596569    0.875339    0.875283    0.875374   -0.000006   -0.000000    0.000006
   54.615324    0.875436    0.875380    0.875471   -0.000006   -0.000000    0.000006
   54.634079    0.875533    0.875477    0.875567   -0.000006   -0.000000    0.000006
   54.652834    0.875630    0.875573    0.875664   -0.000006   -0.000000    0.000006
   54.671590    0.875726    0.875670    0.875761   -0.000006   -0.000000    0.000006
   54.690345    0.875823    0.875767    0.875857   -0.000006   -0.000000    0.000006
   54.709100    0.875919    0.875863    0.875953   -0.000006   -0.000000    0.000006
   54.727855    0.876015    0.875960    0.876050   -0.000006   -0.000000    0.000006
   54.746611    0.876112    0.876056    0.876146   -0.000006   -0.000000    0.000006
   54.765366    0.876208    0.876152    0.876242   -0.000006   -0.000000    0.000006
   54.784121    0.876303    0.876248    0.876338   -0.000006   -0.000000    0.000006
   54.802876    0.876399    0.876344    0.876433   -0.000006   -0.000000    0.000006
   54.821632    0.876495    0.876439    0.876529   -0.000006   -0.000000    0.000006
   54.840387    0.876590    0.876535    0.876624   -0.000006   -0.000000    0.000006
   54.859142    0.876686    0.876630    0.876720   -0.000006   -0.000000    0.000006
   54.877897    0.876781    0.876726    0.876815   -0.000006   -0.000000    0.000006
   54.896653    0.876876    0.876821    0.876910   -0.000006   -0.000000    0.000006
   54.915408    0.876971    0.876916    0.877005   -0.000006   -0.000000    0.000006
   54.934163    0.877066    0.877011    0.877100   -0.000006   -0.000000    0.000006
   54.952919    0.877161    0.877106    0.877195   -0.000006   -0.000000    0.000005
   54.971674    0.877256    0.877201    0.877289   -0.000006   -0.000001    0.000005
   54.990429    0.877350    0.877296    0.877384   -0.000006   -0.000001    0.000005
   55.009184    0.877445    0.877390    0.877478   -0.000006   -0.000001    0.000005
   55.027940    0.877539    0.877484    0.877573   -0.000006   -0.000001    0.000005
   55.046695    0.877633    0.877579    0.877667   -0.000006   -0.000001    0.000005
   55.065450    0.877727    0.877673    0.877761   -0.000006   -0.000001    0.000005
   55.084205    0.877821    0.877767    0.877855   -0.000006   -0.000001    0.000005
   55.102961    0.877915    0.877861    0.877949   -0.000006   -0.000001    0.000005
   55.121716    0.878009    0.877955    0.878042   -0.000006   -0.000001    0.000005
   55.140471    0.878102    0.878048    0.878136   -0.000006   -0.000001    0.000005
   55.159226    0.878196    0.878142    0.878229   -0.000006   -0.000001    0.000005
   55.177982    0.878289    0.878235    0.878323   -0.000006   -0.000001    0.000005
   55.196737    0.878382    0.878329    0.878416   -0.000006   -0.000001    0.000005
   55.215492    0.878475    0.878422    0.878509   -0.000006   -0.000001    0.000005
   55.234247    0.878568    0.878515    0.878602   -0.000006   -0.000001    0.000005
   55.253003    0.878661    0.878608    0.878695   -0.000006   -0.000001    0.000005
   55.271758    0.878754    0.878701    0.878788   -0.000006   -0.000001    0.000005
   55.290513    0.878847    0.878794    0.878880   -0.000006   -0.000001    0.000005
   55.309269    0.878939    0.878886    0.878973   -0.000006   -0.000001    0.000005
   55.328024    0.879032    0.878979    0.879065   -0.000006   -0.000001    0.000005
   55.346779    0.879124    0.879071    0.879158   -0.000006   -0.000001    0.000005
   55.365534    0.879216    0.879164    0.879250   -0.000006   -0.000001    0.000005
   55.384290    0.879308    0.879256    0.879342   -0.000006   -0.000001    0.000005
   55.403045    0.879400    0.879348    0.879434   -0.000006   -0.000001    0.000005
   55.421800    0.879492    0.879440    0.879526   -0.000006   -0.000001    0.000005
   55.440555    0.879584    0.879532    0.879617   -0.000006   -0.000001    0.000005
   55.459311    0.879676    0.879623    0.879709   -0.000006   -0.000001    0.000005
   55.478066    0.879767    0.879715    0.879800   -0.000006   -0.000001    0.000005
   55.496821    0.879859    0.879806    0.879892   -0.000006   -0.000001    0.000005
   55.515576    0.879950    0.879898    0.879983   -0.000006   -0.000001    0.000005
   55.534332    0.880041    0.879989    0.880074   -0.000006   -0.000001    0.000005
   55.553087    0.880132    0.880080    0.880165   -0.000006   -0.000001    0.000005
   55.571842    0.880223    0.880171    0.880256   -0.000006   -0.000001    0.000005
   55.590597    0.880314    0.880262    0.880347   -0.000006   -0.000001    0.000005
   55.609353    0.880405    0.880353    0.880438   -0.000006   -0.000001    0.000005
   55.628108    0.880495    0.880444    0.880528   -0.000006   -0.000001    0.000005
   55.646863    0.880586    0.880534    0.880619   -0.000006   -0.000001    0.000005
   55.665618    0.880676    0.880625    0.880709   -0.000006   -0.000001    0.000005
   55.684374    0.880766    0.880715    0.880800   -0.000006   -0.000001    0.000005
   55.703129    0.880857    0.880805    0.880890   -0.000006   -0.000001    0.000005
   55.721884    0.880947    0.880896    0.880980   -0.000006   -0.000001    0.000005
   55.740640    0.881037    0.880986    0.881070   -0.000006   -0.000001    0.000005
   55.759395    0.881126    0.881076    0.881160   -0.000006   -0.000001    0.000005
   55.778150    0.881216    0.881165    0.881249   -0.000006   -0.000001    0.000005
   55.796905    0.881306    0.881255    0.881339   -0.000006   -0.000001    0.000005
   55.815661    0.881395    0.881345    0.881428   -0.000006   -0.000001    0.000005
   55.834416    0.881485    0.881434    0.881518   -0.000006   -0.000001    0.000005
   55.853171    0.881574    0.881524    0.881607   -0.000006   -0.000001    0.000005
   55.871926    0.881663    0.881613    0.881696   -0.000006   -0.000001    0.000005
   55.890682    0.881752    0.881702    0.881785   -0.000006   -0.000001    0.000005
   55.909437    0.881841    0.881791    0.881874   -0.000006   -0.000001    0.000005
   55.928192    0.881930    0.881880    0.881963   -0.000006   -0.000001    0.000005
   55.946947    0.882019    0.881969    0.882052   -0.000006   -0.000001    0.000005
   55.965703    0.882107    0.882058    0.882140   -0.000006   -0.000001    0.000005
   55.984458    0.882196    0.882146    0.882229   -0.000006   -0.000001    0.000005
   56.003213    0.882284    0.882235    0.882317   -0.000006   -0.000001    0.000005
   56.021968    0.882373    0.882323    0.882406   -0.000006   -0.000001    0.000005
   56.040724    0.882461    0.882411    0.882494   -0.000006   -0.000001    0.000005
   56.059479    0.882549    0.882500    0.882582   -0.000006   -0.000001    0.000005
   56.078234    0.882637    0.882588    0.882670   -0.000006   -0.000001    0.000005
   56.096990    0.882725    0.882676    0.882758   -0.000006   -0.000001    0.000005
   56.115745    0.882813    0.882763    0.882845   -0.000006   -0.000001    0.000005
   56.134500    0.882900    0.882851    0.882933   -0.000006   -0.000001    0.000005
   56.153255    0.882988    0.882939    0.883021   -0.000006   -0.000001    0.000005
   56.172011    0.883075    0.883026    0.883108   -0.000006   -0.000001    0.000005
   56.190766    0.883163    0.883114    0.883195   -0.000006   -0.000001    0.000005
   56.209521    0.883250    0.883201    0.883283   -0.000006   -0.000001    0.000005
   56.228276    0.883337    0.883288    0.883370   -0.000006   -0.000001    0.000005
   56.247032    0.883424    0.883376    0.883457   -0.000006   -0.000001    0.000005
 
 The outermost node in the dielectric function lies at epsilon=  18.5


--------------------------------------------------------------------------------------------------------


    OPTICS:  cpu time  179.6128: real time  180.0013
    4ORBIT:  cpu time    0.0000: real time    0.0000
 


 total charge     
 
# of ion       s       p       d       tot
------------------------------------------
    1        0.400   0.284   9.599  10.283
    2        0.396   0.284   9.602  10.281
    3        0.331   0.321   9.369  10.021
    4        0.334   0.335   9.366  10.035
    5        0.341   0.335   9.365  10.041
    6        0.321   0.320   9.371  10.012
    7        1.093   1.093   0.145   2.331
    8        1.099   1.094   0.139   2.331
    9        1.464   2.402   0.040   3.906
   10        1.464   2.397   0.040   3.901
   11        1.463   2.400   0.040   3.903
   12        1.321   2.386   0.000   3.707
   13        1.323   2.378   0.000   3.701
   14        1.323   2.384   0.000   3.707
   15        1.323   2.382   0.000   3.705
   16        1.318   2.397   0.000   3.715
--------------------------------------------------
tot         15.314  23.192  57.076  95.582
 
 BZINTS: Fermi energy:    2.743629;  124.000000 electrons
         Band energy:-0.369574E+03;  BLOECHL correction:   -0.000000

 total amount of memory used by VASP MPI-rank0  1371739. kBytes
=======================================================================

   base      :      30000. kBytes
   nonl-proj :     680653. kBytes
   fftplans  :       3955. kBytes
   grid      :      11842. kBytes
   one-center:        248. kBytes
   HF        :        324. kBytes
   nonlr-proj:       2675. kBytes
   wavefun   :     569257. kBytes
   fock_wrk  :      72785. kBytes
 
  
  
 General timing and accounting informations for this job:
 ========================================================
  
                  Total CPU time used (sec):    86652.992
                            User time (sec):    86629.900
                          System time (sec):       23.092
                         Elapsed time (sec):    86838.932
  
                   Maximum memory used (kb):     4019532.
                   Average memory used (kb):           0.
  
                          Minor page faults:     13507862
                          Major page faults:           14
                 Voluntary context switches:       858677
